91
name: Single point structure; charge: 1; multiplicity: 1; energy: -5283.69519800; method: omegaB97M-V; basis_set: def2-svp; engine: GPU4PySCF; generated_by: Rowan; timestamp: 2026-05-13 15:47:49;
P     1.83580035  -0.09551161   0.31476098
P    -1.53047952  -0.59906122  -0.13871332
C     2.11555173  -1.47996101  -0.80113822
C     2.71274116  -2.76304067  -0.57534091
C     1.63427383  -1.47069128  -2.14763264
C     2.57314914  -3.52755674  -1.76109430
H     3.14470429  -3.12058436   0.34308254
C     1.90807737  -2.73114206  -2.73151904
H     1.12298072  -0.64754434  -2.61858328
H     2.88705947  -4.55121924  -1.88689298
H     1.63305031  -3.04494466  -3.72516195
Fe    0.72933623  -2.94506853  -1.04247832
C    -0.69230166  -4.42620025  -1.23592288
C    -1.26752545  -3.15424636  -1.48858176
C    -0.16839519  -4.41997089   0.08447974
H    -0.64307245  -5.24415068  -1.93656192
C    -1.08463174  -2.34442135  -0.32419636
H    -1.73230467  -2.84454254  -2.40973280
C    -0.40632108  -3.14213858   0.65032133
H     0.35463049  -5.23271413   0.56172661
H    -0.10579936  -2.82081605   1.63476785
Ni    0.11767820   1.05368516  -0.43734246
C     1.42042802   2.29584651  -1.02707630
C     2.02315365   3.26579711  -0.22601502
C     1.70706211   2.31416246  -2.39377113
C     2.88757867   4.20908170  -0.76512626
H     1.84959048   3.27670144   0.84568255
C     2.58153203   3.25021621  -2.93860462
H     1.25328856   1.58658067  -3.06233286
C     3.17590150   4.20072257  -2.12363791
H     3.34613298   4.94697752  -0.11851724
H     2.79406509   3.23348401  -4.00051134
H     3.85652070   4.93067416  -2.54161284
C     1.56117306  -0.74845427   1.98756891
C     0.44959417  -0.31212724   2.69795060
C     2.43823620  -1.65345529   2.58836785
C     0.16722305  -0.81903661   3.96003386
H    -0.20250407   0.43269733   2.26216768
C     2.16019237  -2.16060814   3.84614824
H     3.35213469  -1.94276925   2.08640753
C     1.01537160  -1.75640907   4.52682964
H    -0.71405374  -0.48042476   4.48991301
H     2.84108438  -2.86611557   4.30388917
H     0.80007928  -2.16052543   5.50724065
C     3.48014517   0.66061087   0.45703985
C     3.89276760   1.24259241   1.65193432
C     4.30163481   0.73279218  -0.66519453
C     5.11454802   1.89560729   1.72135691
H     3.26470320   1.18852596   2.53316055
C     5.52087621   1.38624649  -0.59278783
H     3.98666598   0.28589168  -1.60028683
C     5.92676646   1.97086202   0.59950431
H     5.43239868   2.34323084   2.65393678
H     6.15428223   1.44060069  -1.46839242
H     6.87962512   2.48051194   0.65507304
C    -2.60904430  -0.64750441   1.32991552
C    -2.78493546   0.49501824   2.10668052
C    -3.28182310  -1.81850800   1.67889995
C    -3.62229987   0.47009741   3.21217096
H    -2.26850991   1.41304016   1.85561312
C    -4.11565732  -1.84278698   2.78678092
H    -3.15496119  -2.71605762   1.08689389
C    -4.28662299  -0.69897085   3.55468384
H    -3.75299474   1.36695006   3.80387582
H    -4.63201536  -2.75659435   3.04956905
H    -4.93698356  -0.72000767   4.41941147
C    -2.69409555  -0.41810124  -1.54018487
C    -2.15683562  -0.21091771  -2.81327317
C    -4.07587900  -0.48858346  -1.39476094
C    -2.98252524  -0.07781809  -3.91914335
H    -1.07945578  -0.16034576  -2.93974666
C    -4.90316639  -0.35181916  -2.50259020
H    -4.51230730  -0.64295374  -0.41642580
C    -4.36125210  -0.14595094  -3.76237894
H    -2.55267899   0.07831617  -4.89993545
H    -5.97645310  -0.40770346  -2.37764644
H    -5.01011473  -0.03977423  -4.62145262
C    -2.07868122   2.98184910  -0.17894170
C    -3.45407777   2.83286321  -0.25601291
C    -1.50183994   3.68790191   0.86920561
C    -4.25883091   3.37096307   0.73894688
H    -3.89582002   2.29385708  -1.08597996
C    -2.31411787   4.23278254   1.85221104
H    -0.42686774   3.81105241   0.90795143
C    -3.69255652   4.06799882   1.79535058
H    -5.33227659   3.24780986   0.68244825
H    -1.86742579   4.78930959   2.66569640
H    -4.32225525   4.49401112   2.56493977
H    -0.65545994   3.08403343  -1.62815788
H    -1.80275292   1.94576646  -1.89493233
N    -1.22559790   2.37384032  -1.17481063
