48
name: Step 158; charge: 2; multiplicity: 1; energy: -1055.69896500; method: g-xTB; engine: xtb; generated_by: Rowan; timestamp: 2026-05-13 17:38:37;
C    -1.74209655  -1.27628352   0.03587190
C    -1.62101268  -2.32346274   0.99110615
C    -0.41390201  -3.03067246   1.14293636
C     0.70624590  -2.75605754   0.30463120
C     0.63179659  -1.63080912  -0.51840640
C    -0.57828200  -0.89191160  -0.64176807
C    -3.04854779  -0.62814424  -0.25661626
H    -2.47215630  -2.58181663   1.60557288
H    -0.35153271  -3.83557784   1.86163381
C     1.88682041  -3.67598931   0.32567132
H     1.49127598  -1.34537992  -1.10406445
H    -0.61589524  -0.04756410  -1.31626693
H    -2.93789809   0.42990963  -0.49038244
H    -3.76510499  -0.76342735   0.54922635
H    -3.46631510  -1.10819027  -1.13987590
C     3.13380671  -3.12696992  -0.33626418
C     1.45436394  -4.96581578  -0.36570456
H     2.10713981  -3.92098139   1.36535811
H     2.27417412  -5.67861531  -0.34226704
H     0.59614827  -5.41719406   0.12571512
H     1.19862190  -4.78309397  -1.40832567
H     3.45815115  -2.17196044   0.07707214
H     3.94380973  -3.83891795  -0.20394711
H     2.98822616  -3.00544391  -1.40793220
Ru   -0.04059636  -0.92627301   1.48378374
N    -1.10513869  -0.11003286   3.05796270
N     1.25086112  -1.15664074   3.07646693
C    -2.45278844   0.81227654   5.27775150
C    -3.00383404   0.94915101   4.01689786
C    -2.29647535   0.47383797   2.93469694
C    -0.54873271  -0.21393792   4.27669580
C    -1.20323889   0.23198856   5.40715409
H    -2.98089443   1.16061545   6.14968919
H    -3.96584295   1.41063663   3.87126691
H    -2.69903959   0.55179117   1.93847971
H    -0.74507190   0.12811203   6.37588935
C     2.87735637  -1.35954993   5.29065225
C     1.58498186  -0.87744540   5.41203470
C     0.79753967  -0.78023736   4.28349455
C     2.50267799  -1.58925624   2.95776940
C     3.34923367  -1.70857541   4.03982117
H     3.50603750  -1.44571698   6.16147679
H     1.20218255  -0.57648204   6.37251928
H     2.83419496  -1.85311278   1.96762587
H     4.35481457  -2.06722123   3.89938181
O     0.91601252   1.00232576   1.42749908
H     1.04467290   1.45332432   0.58168409
H     0.59475687   1.65865150   2.06229909
